LAMMPS data file
# 400 BMI molecules
# 400 BF4 molecules

10 atom types
11 bond types
20 angle types
39 dihedral types
5 improper types

12000 atoms
11600 bonds
20400 angles
33200 dihedrals
2000 impropers

-35.3695 35.3695 xlo xhi
-35.3695 35.3695 ylo yhi
-35.3695 35.3695 zlo zhi

Masses

1   12.010  # cc BMI
2   14.010  # na BMI
3   12.010  # cd BMI
4   12.010  # c3 BMI
5    1.008  # h1 BMI
6    1.008  # h4 BMI
7    1.008  # h5 BMI
8    1.008  # hc BMI
9   10.811  # b BF4
10   19.000  # f BF4

Pair Coeffs

1 0.0859427210304 3.400  # cc BMI
2 0.169885665734 3.250  # na BMI
3 0.0859427210304 3.400  # cd BMI
4 0.10932640151 3.400  # c3 BMI
5 0.0156903999552 2.471  # h1 BMI
6 0.0149893860096 2.511  # h4 BMI
7 0.0149893860096 2.421  # h5 BMI
8 0.0156903999552 2.650  # hc BMI
9 0.0949367498112 3.581  # b BF4
10 0.0609584251392 3.118  # f BF4

Bond Coeffs

1 438.505074662  1.371  # harmonic BMI cc na
2 503.661639974  1.371  # harmonic BMI cc cd
3 349.86553511  1.083  # harmonic BMI cc h4
4 334.47500231  1.456  # harmonic BMI c3 na
5 438.505074662  1.371  # harmonic BMI cd na
6 349.86553511  1.083  # harmonic BMI cd h4
7 355.761598579  1.079  # harmonic BMI cc h5
8 335.674470931  1.093  # harmonic BMI c3 h1
9 302.897600755  1.535  # harmonic BMI c3 c3
10 337.074512947  1.092  # harmonic BMI c3 hc
11 289.807902962  1.393  # harmonic BF4 b f

Angle Coeffs

1 68.8939824384  109.90  # harmonic BMI cc na cc
2 62.5173371712  125.09  # harmonic BMI c3 na cc
3 72.861761088  109.42  # harmonic BMI cc cd na
4 47.1585783744  129.11  # harmonic BMI cc cd h4
5 72.861761088  109.42  # harmonic BMI cd cc na
6 50.1870380544  119.66  # harmonic BMI h4 cc na
7 73.6005066624  109.33  # harmonic BMI na cc na
8 49.726315008  122.10  # harmonic BMI h5 cc na
9 49.8673121472  109.45  # harmonic BMI h1 c3 na
10 47.1585783744  129.11  # harmonic BMI cd cc h4
11 63.8379441792  128.01  # harmonic BMI cc na cd
12 62.5173371712  125.09  # harmonic BMI c3 na cd
13 39.1535154432  109.55  # harmonic BMI h1 c3 h1
14 50.1870380544  119.66  # harmonic BMI h4 cd na
15 65.6867939904  112.81  # harmonic BMI c3 c3 na
16 63.1667183616  110.63  # harmonic BMI c3 c3 c3
17 46.3384119168  110.05  # harmonic BMI c3 c3 hc
18 46.3284825408  110.07  # harmonic BMI c3 c3 h1
19 39.4037357184  108.35  # harmonic BMI hc c3 hc
20 49.9668044947  109.47  # harmonic BF4 f b f

Dihedral Coeffs

1 1.69885665734  2 180 0.0  # charmm BMI cd cc na cc
2 1.69885665734  2 180 0.0  # charmm BMI h4 cc na cc
3 1.69885665734  2 180 0.0  # charmm BMI cd cc na c3
4 1.69885665734  2 180 0.0  # charmm BMI h4 cc na c3
5 3.99732847258  2 180 0.0  # charmm BMI na cc cd na
6 3.99732847258  2 180 0.0  # charmm BMI h4 cc cd na
7 3.99732847258  2 180 0.0  # charmm BMI na cc cd h4
8 3.99732847258  2 180 0.0  # charmm BMI h4 cc cd h4
9 1.69885665734  2 180 0.0  # charmm BMI na cc na cc
10 1.69885665734  2 180 0.0  # charmm BMI na cc na c3
11 1.69885665734  2 180 0.0  # charmm BMI h5 cc na cc
12 1.69885665734  2 180 0.0  # charmm BMI h5 cc na c3
13 -0.055862669376  2 180 0.0  # charmm BMI h1 c3 na cc
14 0.194695204608  3 0 0.0  # charmm BMI h1 c3 na cc
15 0.055266906816  4 180 0.0  # charmm BMI h1 c3 na cc
16 1.69885665734  2 180 0.0  # charmm BMI cc cd na cc
17 1.69885665734  2 180 0.0  # charmm BMI h4 cd na cc
18 1.69885665734  2 180 0.0  # charmm BMI cc cd na c3
19 1.69885665734  2 180 0.0  # charmm BMI h4 cd na c3
20 1.69885665734  2 180 0.0  # charmm BMI na cc na cd
21 1.69885665734  2 180 0.0  # charmm BMI h5 cc na cd
22 -0.05342004288  1 0 0.0  # charmm BMI c3 c3 na cd
23 0.079713030528  2 180 0.0  # charmm BMI c3 c3 na cd
24 0.192788764416  3 0 0.0  # charmm BMI c3 c3 na cd
25 0.047800016064  4 180 0.0  # charmm BMI c3 c3 na cd
26 -0.05342004288  1 0 0.0  # charmm BMI c3 c3 na cc
27 0.079713030528  2 180 0.0  # charmm BMI c3 c3 na cc
28 0.192788764416  3 0 0.0  # charmm BMI c3 c3 na cc
29 0.047800016064  4 180 0.0  # charmm BMI c3 c3 na cc
30 0.165403545408  3 0 0.0  # charmm BMI h1 c3 na cd
31 0.1558912032  3 0 0.0  # charmm BMI c3 c3 c3 na
32 0.1558912032  3 0 0.0  # charmm BMI c3 c3 c3 h1
33 0.1558912032  3 0 0.0  # charmm BMI hc c3 c3 na
34 0.1558912032  3 0 0.0  # charmm BMI h1 c3 c3 hc
35 0.179880575616  3 0 0.0  # charmm BMI c3 c3 c3 c3
36 0.24982310016  2 180 0.0  # charmm BMI c3 c3 c3 c3
37 0.199858480128  1 180 0.0  # charmm BMI c3 c3 c3 c3
38 0.159902671104  3 0 0.0  # charmm BMI c3 c3 c3 hc
39 0.149893860096  3 0 0.0  # charmm BMI hc c3 c3 hc

Improper Coeffs

1 1.09926135821 -1  2  # cvff BMI cd h4 cc na
2 1.09926135821 -1  2  # cvff BMI c3 cc na cc
3 1.09926135821 -1  2  # cvff BMI cc h4 cd na
4 1.09926135821 -1  2  # cvff BMI h5 na cc na
5 1.09926135821 -1  2  # cvff BMI c3 cc na cd

Atoms

1 1 1 -0.124000   26.65300   24.21150   21.57950  # cc C1 BMI 1
2 1 2  0.177000   27.99400   24.22550   21.24350  # na N1 BMI 1
3 1 3 -0.233000   26.12400   23.06850   21.06450  # cd C2 BMI 1
4 1 1 -0.135000   28.26400   23.11750   20.54550  # cc C3 BMI 1
5 1 4 -0.301000   28.95700   25.27550   21.60450  # c3 C4 BMI 1
6 1 5  0.145000   28.63100   26.22750   21.18750  # h1 H1 BMI 1
7 1 5  0.145000   29.93200   25.01550   21.19650  # h1 H2 BMI 1
8 1 5  0.145000   29.02700   25.34750   22.68950  # h1 H3 BMI 1
9 1 2  0.251000   27.14600   22.39650   20.42350  # na N2 BMI 1
10 1 6  0.187000   26.19700   25.00150   22.15250  # h4 H4 BMI 1
11 1 6  0.223000   25.12000   22.68050   21.10450  # h4 H5 BMI 1
12 1 7  0.192000   29.22800   22.84950   20.14850  # h5 H6 BMI 1
13 1 4 -0.278000   27.01600   21.11750   19.68150  # c3 C5 BMI 1
14 1 4  0.048000   26.32900   21.29150   18.32550  # c3 C6 BMI 1
15 1 5  0.117000   26.46100   20.43350   20.32550  # h1 H7 BMI 1
16 1 5  0.117000   28.02400   20.71750   19.56750  # h1 H8 BMI 1
17 1 4  0.113000   26.20900   19.95650   17.57850  # c3 C7 BMI 1
18 1 8  0.016000   26.89800   22.00650   17.72150  # hc H9 BMI 1
19 1 8  0.016000   25.33300   21.72250   18.47150  # hc H10 BMI 1
20 1 4 -0.278000   25.52200   20.10450   16.21850  # c3 C8 BMI 1
21 1 8  0.010000   25.64800   19.24350   18.19550  # hc H11 BMI 1
22 1 8  0.010000   27.20700   19.52550   17.44050  # hc H12 BMI 1
23 1 8  0.079000   24.50800   20.49750   16.32550  # hc H13 BMI 1
24 1 8  0.079000   25.45200   19.14050   15.71150  # hc H14 BMI 1
25 1 8  0.079000   26.07800   20.78250   15.56450  # hc H15 BMI 1
26 2 1 -0.124000   10.80200    9.88250   21.43850  # cc C1 BMI 2
27 2 2  0.177000   10.36700    9.94850   20.12850  # na N1 BMI 2
28 2 3 -0.233000   10.30500    8.73050   21.96750  # cd C2 BMI 2
29 2 1 -0.135000    9.62900    8.86150   19.87450  # cc C3 BMI 2
30 2 4 -0.301000   10.67500   11.02450   19.17550  # c3 C4 BMI 2
31 2 5  0.145000   10.30100   11.97150   19.56250  # h1 H1 BMI 2
32 2 5  0.145000   10.19000   10.80450   18.22650  # h1 H2 BMI 2
33 2 5  0.145000   11.75300   11.08050   19.02650  # h1 H3 BMI 2
34 2 2  0.251000    9.57700    8.10450   20.97450  # na N2 BMI 2
35 2 6  0.187000   11.42100   10.64650   21.87650  # h4 H4 BMI 2
36 2 6  0.223000   10.41300    8.30750   22.95150  # h4 H5 BMI 2
37 2 7  0.192000    9.15700    8.63250   18.93450  # h5 H6 BMI 2
38 2 4 -0.278000    8.82300    6.83450   21.11750  # c3 C5 BMI 2
39 2 4  0.048000    7.52500    7.00650   21.90950  # c3 C6 BMI 2
40 2 5  0.117000    9.49400    6.12050   21.59950  # h1 H7 BMI 2
41 2 5  0.117000    8.62700    6.47050   20.10850  # h1 H8 BMI 2
42 2 4  0.113000    6.76500    5.68050   22.04150  # c3 C7 BMI 2
43 2 8  0.016000    6.89400    7.75050   21.41150  # hc H9 BMI 2
44 2 8  0.016000    7.75300    7.40050   22.90550  # hc H10 BMI 2
45 2 4 -0.278000    5.46200    5.82750   22.83250  # c3 C8 BMI 2
46 2 8  0.010000    7.40800    4.93950   22.53050  # hc H11 BMI 2
47 2 8  0.010000    6.54500    5.28650   21.04250  # hc H12 BMI 2
48 2 8  0.079000    5.65200    6.18350   23.84850  # hc H13 BMI 2
49 2 8  0.079000    4.94400    4.87050   22.90850  # hc H14 BMI 2
50 2 8  0.079000    4.78200    6.53550   22.35050  # hc H15 BMI 2
51 3 1 -0.124000  -10.30800    1.78850    0.89250  # cc C1 BMI 3
52 3 2  0.177000  -11.36000    2.67750    0.77750  # na N1 BMI 3
53 3 3 -0.233000   -9.53700    1.93550   -0.22050  # cd C2 BMI 3
54 3 1 -0.135000  -11.22400    3.34350   -0.37450  # cc C3 BMI 3
55 3 4 -0.301000  -12.43600    2.86450    1.76150  # c3 C4 BMI 3
56 3 5  0.145000  -12.97400    1.92650    1.89350  # h1 H1 BMI 3
57 3 5  0.145000  -13.12200    3.62550    1.39350  # h1 H2 BMI 3
58 3 5  0.145000  -12.01000    3.18850    2.70950  # h1 H3 BMI 3
59 3 2  0.251000  -10.12400    2.91350   -0.99950  # na N2 BMI 3
60 3 6  0.187000  -10.19500    1.14050    1.74350  # h4 H4 BMI 3
61 3 6  0.223000   -8.63000    1.43650   -0.51450  # h4 H5 BMI 3
62 3 7  0.192000  -11.89200    4.10650   -0.73750  # h5 H6 BMI 3
63 3 4 -0.278000   -9.64500    3.37250   -2.32650  # c3 C5 BMI 3
64 3 4  0.048000   -9.93700    2.36350   -3.43850  # c3 C6 BMI 3
65 3 5  0.117000   -8.57400    3.56250   -2.22850  # h1 H7 BMI 3
66 3 5  0.117000  -10.13100    4.32950   -2.52150  # h1 H8 BMI 3
67 3 4  0.113000   -9.43300    2.86350   -4.79950  # c3 C7 BMI 3
68 3 8  0.016000  -11.01500    2.17950   -3.48450  # hc H9 BMI 3
69 3 8  0.016000   -9.46200    1.40650   -3.19950  # hc H10 BMI 3
70 3 4 -0.278000   -9.71300    1.86850   -5.92950  # c3 C8 BMI 3
71 3 8  0.010000   -8.35500    3.05650   -4.74050  # hc H11 BMI 3
72 3 8  0.010000   -9.90600    3.82450   -5.03150  # hc H12 BMI 3
73 3 8  0.079000   -9.22100    0.90950   -5.74550  # hc H13 BMI 3
74 3 8  0.079000   -9.34500    2.25150   -6.88250  # hc H14 BMI 3
75 3 8  0.079000  -10.78400    1.68150   -6.03850  # hc H15 BMI 3
76 4 1 -0.124000   16.86400   32.04350   15.19550  # cc C1 BMI 4
77 4 2  0.177000   17.72600   31.77050   14.15050  # na N1 BMI 4
78 4 3 -0.233000   16.56000   30.85550   15.78550  # cd C2 BMI 4
79 4 1 -0.135000   17.93700   30.45050   14.11450  # cc C3 BMI 4
80 4 4 -0.301000   18.31600   32.76450   13.24350  # c3 C4 BMI 4
81 4 5  0.145000   17.52300   33.29650   12.71950  # h1 H1 BMI 4
82 4 5  0.145000   18.94700   32.25150   12.51950  # h1 H2 BMI 4
83 4 5  0.145000   18.92200   33.46550   13.81650  # h1 H3 BMI 4
84 4 2  0.251000   17.24300   29.87050   15.09750  # na N2 BMI 4
85 4 6  0.187000   16.54700   33.04550   15.43050  # h4 H4 BMI 4
86 4 6  0.223000   15.93000   30.63250   16.62950  # h4 H5 BMI 4
87 4 7  0.192000   18.56800   29.93750   13.40850  # h5 H6 BMI 4
88 4 4 -0.278000   17.17600   28.41350   15.37050  # c3 C5 BMI 4
89 4 4  0.048000   15.86500   27.78550   14.89550  # c3 C6 BMI 4
90 4 5  0.117000   17.31500   28.28650   16.44550  # h1 H7 BMI 4
91 4 5  0.117000   18.03500   27.96250   14.87250  # h1 H8 BMI 4
92 4 4  0.113000   15.82200   26.27950   15.18750  # c3 C7 BMI 4
93 4 8  0.016000   15.74900   27.96050   13.82050  # hc H9 BMI 4
94 4 8  0.016000   15.02100   28.27950   15.38850  # hc H10 BMI 4
95 4 4 -0.278000   14.51700   25.62850   14.72150  # c3 C8 BMI 4
96 4 8  0.010000   15.95100   26.11350   16.26350  # hc H11 BMI 4
97 4 8  0.010000   16.67100   25.78950   14.69750  # hc H12 BMI 4
98 4 8  0.079000   13.65200   26.06950   15.22350  # hc H13 BMI 4
99 4 8  0.079000   14.51700   24.55950   14.94250  # hc H14 BMI 4
100 4 8  0.079000   14.37700   25.74450   13.64350  # hc H15 BMI 4
101 5 1 -0.124000   -6.50100   26.54350   28.39650  # cc C1 BMI 5
102 5 2  0.177000   -6.36000   26.92250   29.71850  # na N1 BMI 5
103 5 3 -0.233000   -5.80000   25.38750   28.23550  # cd C2 BMI 5
104 5 1 -0.135000   -5.59500   26.01650   30.33650  # cc C3 BMI 5
105 5 4 -0.301000   -6.95900   28.11350   30.33650  # c3 C4 BMI 5
106 5 5  0.145000   -6.60100   29.00750   29.82750  # h1 H1 BMI 5
107 5 5  0.145000   -6.66700   28.15150   31.38450  # h1 H2 BMI 5
108 5 5  0.145000   -8.04500   28.05250   30.26650  # h1 H3 BMI 5
109 5 2  0.251000   -5.24300   25.07150   29.45950  # na N2 BMI 5
110 5 6  0.187000   -7.08300   27.11550   27.69450  # h4 H4 BMI 5
111 5 6  0.223000   -5.65900   24.76850   27.36550  # h4 H5 BMI 5
112 5 7  0.192000   -5.31200   26.04250   31.37450  # h5 H6 BMI 5
113 5 4 -0.278000   -4.36100   23.91250   29.74050  # c3 C5 BMI 5
114 5 4  0.048000   -2.94800   24.09850   29.18650  # c3 C6 BMI 5
115 5 5  0.117000   -4.84700   23.03350   29.31150  # h1 H7 BMI 5
116 5 5  0.117000   -4.34900   23.78350   30.82450  # h1 H8 BMI 5
117 5 4  0.113000   -2.05700   22.88650   29.49250  # c3 C7 BMI 5
118 5 8  0.016000   -2.50700   25.00350   29.61750  # hc H9 BMI 5
119 5 8  0.016000   -2.99700   24.25550   28.10450  # hc H10 BMI 5
120 5 4 -0.278000   -0.63700   23.04950   28.94550  # c3 C8 BMI 5
121 5 8  0.010000   -2.51300   21.98450   29.06750  # hc H11 BMI 5
122 5 8  0.010000   -2.01700   22.72950   30.57650  # hc H12 BMI 5
123 5 8  0.079000   -0.64100   23.17050   27.85850  # hc H13 BMI 5
124 5 8  0.079000   -0.02800   22.17450   29.17850  # hc H14 BMI 5
125 5 8  0.079000   -0.14100   23.92350   29.37850  # hc H15 BMI 5
126 6 1 -0.124000   10.96200    1.88750   -4.24550  # cc C1 BMI 6
127 6 2  0.177000   10.65900    1.80150   -5.59150  # na N1 BMI 6
128 6 3 -0.233000   10.91000    3.20550   -3.90850  # cd C2 BMI 6
129 6 1 -0.135000   10.42800    3.03550   -6.05050  # cc C3 BMI 6
130 6 4 -0.301000   10.59000    0.56050   -6.37650  # c3 C4 BMI 6
131 6 5  0.145000   11.55800    0.06150   -6.35250  # h1 H1 BMI 6
132 6 5  0.145000   10.33600    0.80750   -7.40550  # h1 H2 BMI 6
133 6 5  0.145000    9.82300   -0.09150   -5.96150  # h1 H3 BMI 6
134 6 2  0.251000   10.57200    3.90750   -5.04850  # na N2 BMI 6
135 6 6  0.187000   11.18100    1.01850   -3.64950  # h4 H4 BMI 6
136 6 6  0.223000   11.07700    3.69350   -2.96250  # h4 H5 BMI 6
137 6 7  0.192000   10.16500    3.28550   -7.06450  # h5 H6 BMI 6
138 6 4 -0.278000   10.44200    5.38150   -5.15550  # c3 C5 BMI 6
139 6 4  0.048000   11.79600    6.09350   -5.16350  # c3 C6 BMI 6
140 6 5  0.117000    9.82400    5.70650   -4.31650  # h1 H7 BMI 6
141 6 5  0.117000    9.88400    5.58150   -6.07150  # h1 H8 BMI 6
142 6 4  0.113000   11.63400    7.61450   -5.27750  # c3 C7 BMI 6
143 6 8  0.016000   12.39600    5.71850   -6.00050  # hc H9 BMI 6
144 6 8  0.016000   12.34400    5.84950   -4.24750  # hc H10 BMI 6
145 6 4 -0.278000   12.97700    8.34950   -5.28450  # c3 C8 BMI 6
146 6 8  0.010000   11.02200    7.97850   -4.44250  # hc H11 BMI 6
147 6 8  0.010000   11.08000    7.85350   -6.19250  # hc H12 BMI 6
148 6 8  0.079000   13.53800    8.16050   -4.36550  # hc H13 BMI 6
149 6 8  0.079000   12.82900    9.42750   -5.36750  # hc H14 BMI 6
150 6 8  0.079000   13.59800    8.03450   -6.12850  # hc H15 BMI 6
151 7 1 -0.124000   -5.28800   -0.53450   -9.26750  # cc C1 BMI 7
152 7 2  0.177000   -5.48700   -0.67650  -10.62850  # na N1 BMI 7
153 7 3 -0.233000   -5.30200    0.79950   -8.99950  # cd C2 BMI 7
154 7 1 -0.135000   -5.62000    0.54150  -11.16350  # cc C3 BMI 7
155 7 4 -0.301000   -5.55300   -1.95250  -11.35550  # c3 C4 BMI 7
156 7 5  0.145000   -4.61600   -2.49250  -11.22850  # h1 H1 BMI 7
157 7 5  0.145000   -5.71200   -1.74750  -12.41350  # h1 H2 BMI 7
158 7 5  0.145000   -6.38200   -2.54650  -10.97450  # h1 H3 BMI 7
159 7 2  0.251000   -5.51300    1.45650  -10.19550  # na N2 BMI 7
160 7 6  0.187000   -5.16000   -1.38150   -8.61550  # h4 H4 BMI 7
161 7 6  0.223000   -5.18800    1.32850   -8.06750  # h4 H5 BMI 7
162 7 7  0.192000   -5.78900    0.75050  -12.20650  # h5 H6 BMI 7
163 7 4 -0.278000   -5.56200    2.92750  -10.38350  # c3 C5 BMI 7
164 7 4  0.048000   -4.17800    3.57650  -10.31450  # c3 C6 BMI 7
165 7 5  0.117000   -6.22900    3.32250   -9.61550  # h1 H7 BMI 7
166 7 5  0.117000   -6.03500    3.10450  -11.35050  # h1 H8 BMI 7
167 7 4  0.113000   -4.25700    5.09550  -10.51350  # c3 C7 BMI 7
168 7 8  0.016000   -3.53300    3.13250  -11.07950  # hc H9 BMI 7
169 7 8  0.016000   -3.71800    3.35550   -9.34550  # hc H10 BMI 7
170 7 4 -0.278000   -2.88200    5.76750  -10.44650  # c3 C8 BMI 7
171 7 8  0.010000   -4.91400    5.52850   -9.75050  # hc H11 BMI 7
172 7 8  0.010000   -4.72300    5.31150  -11.48150  # hc H12 BMI 7
173 7 8  0.079000   -2.40600    5.60250   -9.47650  # hc H13 BMI 7
174 7 8  0.079000   -2.97100    6.84550  -10.59250  # hc H14 BMI 7
175 7 8  0.079000   -2.21300    5.38150  -11.22050  # hc H15 BMI 7
176 8 1 -0.124000   -3.22500   -3.76150    5.92250  # cc C1 BMI 8
177 8 2  0.177000   -2.95400   -4.77750    5.02550  # na N1 BMI 8
178 8 3 -0.233000   -4.24300   -4.19150    6.71750  # cd C2 BMI 8
179 8 1 -0.135000   -3.78600   -5.79450    5.27750  # cc C3 BMI 8
180 8 4 -0.301000   -1.91800   -4.74650    3.98350  # c3 C4 BMI 8
181 8 5  0.145000   -2.11200   -3.91950    3.30250  # h1 H1 BMI 8
182 8 5  0.145000   -1.94500   -5.68450    3.43050  # h1 H2 BMI 8
183 8 5  0.145000   -0.93900   -4.62850    4.44650  # h1 H3 BMI 8
184 8 2  0.251000   -4.57800   -5.46550    6.30150  # na N2 BMI 8
185 8 6  0.187000   -2.67800   -2.83450    5.92250  # h4 H4 BMI 8
186 8 6  0.223000   -4.74400   -3.70650    7.53750  # h4 H5 BMI 8
187 8 7  0.192000   -3.81000   -6.72850    4.74250  # h5 H6 BMI 8
188 8 4 -0.278000   -5.66600   -6.30550    6.86050  # c3 C5 BMI 8
189 8 4  0.048000   -7.05500   -5.83650    6.42350  # c3 C6 BMI 8
190 8 5  0.117000   -5.55800   -6.28050    7.94650  # h1 H7 BMI 8
191 8 5  0.117000   -5.47200   -7.32750    6.53450  # h1 H8 BMI 8
192 8 4  0.113000   -8.16100   -6.72250    7.01350  # c3 C7 BMI 8
193 8 8  0.016000   -7.11300   -5.84750    5.32950  # hc H9 BMI 8
194 8 8  0.016000   -7.20800   -4.79850    6.73850  # hc H10 BMI 8
195 8 4 -0.278000   -9.56200   -6.27050    6.59150  # c3 C8 BMI 8
196 8 8  0.010000   -8.08800   -6.71450    8.10750  # hc H11 BMI 8
197 8 8  0.010000   -8.00100   -7.76050    6.70150  # hc H12 BMI 8
198 8 8  0.079000   -9.76700   -5.24950    6.92350  # hc H13 BMI 8
199 8 8  0.079000  -10.32500   -6.91850    7.02450  # hc H14 BMI 8
200 8 8  0.079000   -9.67900   -6.30150    5.50450  # hc H15 BMI 8
201 9 1 -0.124000   17.24700  -18.87550   16.22950  # cc C1 BMI 9
202 9 2  0.177000   18.58100  -18.53350   16.11150  # na N1 BMI 9
203 9 3 -0.233000   17.07000  -20.03850   15.54550  # cd C2 BMI 9
204 9 1 -0.135000   19.19100  -19.46950   15.37650  # cc C3 BMI 9
205 9 4 -0.301000   19.21800  -17.34950   16.70450  # c3 C4 BMI 9
206 9 5  0.145000   18.74200  -16.44850   16.31950  # h1 H1 BMI 9
207 9 5  0.145000   20.27300  -17.34350   16.43450  # h1 H2 BMI 9
208 9 5  0.145000   19.12300  -17.38950   17.78850  # h1 H3 BMI 9
209 9 2  0.251000   18.29700  -20.39650   15.02050  # na N2 BMI 9
210 9 6  0.187000   16.54800  -18.27450   16.78550  # h4 H4 BMI 9
211 9 6  0.223000   16.18700  -20.63650   15.39550  # h4 H5 BMI 9
212 9 7  0.192000   20.23600  -19.47550   15.11550  # h5 H6 BMI 9
213 9 4 -0.278000   18.56600  -21.57850   14.16550  # c3 C5 BMI 9
214 9 4  0.048000   18.04800  -21.40250   12.73650  # c3 C6 BMI 9
215 9 5  0.117000   18.10300  -22.43650   14.65650  # h1 H7 BMI 9
216 9 5  0.117000   19.64600  -21.73550   14.17950  # h1 H8 BMI 9
217 9 4  0.113000   18.34100  -22.63750   11.87450  # c3 C7 BMI 9
218 9 8  0.016000   18.51400  -20.51650   12.29050  # hc H9 BMI 9
219 9 8  0.016000   16.97000  -21.21550   12.75850  # hc H10 BMI 9
220 9 4 -0.278000   17.82900  -22.48450   10.43950  # c3 C8 BMI 9
221 9 8  0.010000   17.88200  -23.51950   12.33550  # hc H11 BMI 9
222 9 8  0.010000   19.42100  -22.82350   11.86150  # hc H12 BMI 9
223 9 8  0.079000   16.74700  -22.33550   10.41750  # hc H13 BMI 9
224 9 8  0.079000   18.05300  -23.37650    9.85150  # hc H14 BMI 9
225 9 8  0.079000   18.29700  -21.63150    9.93850  # hc H15 BMI 9
226 10 1 -0.124000  -16.54200   22.98350   31.13450  # cc C1 BMI 10
227 10 2  0.177000  -15.81200   23.69850   30.20350  # na N1 BMI 10
228 10 3 -0.233000  -15.76800   21.93550   31.53050  # cd C2 BMI 10
229 10 1 -0.135000  -14.62900   23.09550   30.04450  # cc C3 BMI 10
230 10 4 -0.301000  -16.26000   24.91750   29.51650  # c3 C4 BMI 10
231 10 5  0.145000  -17.16400   24.70450   28.94750  # h1 H1 BMI 10
232 10 5  0.145000  -15.47500   25.24850   28.83750  # h1 H2 BMI 10
233 10 5  0.145000  -16.45500   25.69850   30.25050  # h1 H3 BMI 10
234 10 2  0.251000  -14.57500   22.02350   30.83950  # na N2 BMI 10
235 10 6  0.187000  -17.53200   23.27950   31.43650  # h4 H4 BMI 10
236 10 6  0.223000  -15.96300   21.14950   32.24050  # h4 H5 BMI 10
237 10 7  0.192000  -13.84500   23.42450   29.38350  # h5 H6 BMI 10
238 10 4 -0.278000  -13.44700   21.06350   30.92650  # c3 C5 BMI 10
239 10 4  0.048000  -13.73200   19.75150   30.19350  # c3 C6 BMI 10
240 10 5  0.117000  -13.25600   20.89550   31.98850  # h1 H7 BMI 10
241 10 5  0.117000  -12.57400   21.56850   30.51150  # h1 H8 BMI 10
242 10 4  0.113000  -12.55000   18.77850   30.29750  # c3 C7 BMI 10
243 10 8  0.016000  -13.94800   19.96550   29.14150  # hc H9 BMI 10
244 10 8  0.016000  -14.63100   19.28550   30.61250  # hc H10 BMI 10
245 10 4 -0.278000  -12.81400   17.45650   29.57250  # c3 C8 BMI 10
246 10 8  0.010000  -12.33500   18.58050   31.35450  # hc H11 BMI 10
247 10 8  0.010000  -11.65300   19.25150   29.88350  # hc H12 BMI 10
248 10 8  0.079000  -13.68300   16.94050   29.98950  # hc H13 BMI 10
249 10 8  0.079000  -11.95700   16.78650   29.66250  # hc H14 BMI 10
250 10 8  0.079000  -12.99800   17.61750   28.50650  # hc H15 BMI 10
251 11 1 -0.124000   -0.71800   25.57450   23.83950  # cc C1 BMI 11
252 11 2  0.177000   -1.94800   25.01550   23.55050  # na N1 BMI 11
253 11 3 -0.233000   -0.30400   26.23050   22.72150  # cd C2 BMI 11
254 11 1 -0.135000   -2.26700   25.32950   22.29050  # cc C3 BMI 11
255 11 4 -0.301000   -2.76800   24.22250   24.47750  # c3 C4 BMI 11
256 11 5  0.145000   -2.21200   23.34050   24.79250  # h1 H1 BMI 11
257 11 5  0.145000   -3.67900   23.91250   23.96650  # h1 H2 BMI 11
258 11 5  0.145000   -3.02900   24.82950   25.34350  # h1 H3 BMI 11
259 11 2  0.251000   -1.28600   26.06850   21.76350  # na N2 BMI 11
260 11 6  0.187000   -0.25000   25.46450   24.80350  # h4 H4 BMI 11
261 11 6  0.223000    0.59300   26.79650   22.53250  # h4 H5 BMI 11
262 11 7  0.192000   -3.17000   25.03650   21.78350  # h5 H6 BMI 11
263 11 4 -0.278000   -1.23800   26.58250   20.37250  # c3 C5 BMI 11
264 11 4  0.048000   -0.28900   25.77950   19.48050  # c3 C6 BMI 11
265 11 5  0.117000   -0.94100   27.63150   20.43250  # h1 H7 BMI 11
266 11 5  0.117000   -2.26000   26.55150   19.99250  # h1 H8 BMI 11
267 11 4  0.113000   -0.26000   26.33050   18.04850  # c3 C7 BMI 11
268 11 8  0.016000   -0.60300   24.73050   19.47150  # hc H9 BMI 11
269 11 8  0.016000    0.72000   25.80450   19.90550  # hc H10 BMI 11
270 11 4 -0.278000    0.68700   25.54350   17.13750  # c3 C8 BMI 11
271 11 8  0.010000    0.04400   27.38350   18.07050  # hc H11 BMI 11
272 11 8  0.010000   -1.27200   26.31050   17.63150  # hc H12 BMI 11
273 11 8  0.079000    1.71500   25.57750   17.50850  # hc H13 BMI 11
274 11 8  0.079000    0.68500   25.95750   16.12750  # hc H14 BMI 11
275 11 8  0.079000    0.38900   24.49350   17.06650  # hc H15 BMI 11
276 12 1 -0.124000    4.27000  -15.00450   -3.31850  # cc C1 BMI 12
277 12 2  0.177000    3.57900  -16.16050   -3.01050  # na N1 BMI 12
278 12 3 -0.233000    3.87500  -14.62150   -4.56350  # cd C2 BMI 12
279 12 1 -0.135000    2.78600  -16.46450   -4.04350  # cc C3 BMI 12
280 12 4 -0.301000    3.69100  -16.91650   -1.75450  # c3 C4 BMI 12
281 12 5  0.145000    4.71900  -17.25150   -1.62150  # h1 H1 BMI 12
282 12 5  0.145000    3.03200  -17.78250   -1.80450  # h1 H2 BMI 12
283 12 5  0.145000    3.39300  -16.28350   -0.92050  # h1 H3 BMI 12
284 12 2  0.251000    2.94500  -15.54550   -4.99950  # na N2 BMI 12
285 12 6  0.187000    4.97100  -14.55450   -2.63550  # h4 H4 BMI 12
286 12 6  0.223000    4.16900  -13.77750   -5.16350  # h4 H5 BMI 12
287 12 7  0.192000    2.12400  -17.31250   -4.09350  # h5 H6 BMI 12
288 12 4 -0.278000    2.27500  -15.54650   -6.32350  # c3 C5 BMI 12
289 12 4  0.048000    3.20200  -16.00150   -7.45250  # c3 C6 BMI 12
290 12 5  0.117000    1.90600  -14.53250   -6.49250  # h1 H7 BMI 12
291 12 5  0.117000    1.40700  -16.20050   -6.23450  # h1 H8 BMI 12
292 12 4  0.113000    2.48400  -15.99550   -8.80850  # c3 C7 BMI 12
293 12 8  0.016000    3.57300  -17.00850   -7.23050  # hc H9 BMI 12
294 12 8  0.016000    4.07600  -15.34450   -7.49550  # hc H10 BMI 12
295 12 4 -0.278000    3.39400  -16.44650   -9.95450  # c3 C8 BMI 12
296 12 8  0.010000    2.10600  -14.98750   -9.01550  # hc H11 BMI 12
297 12 8  0.010000    1.60600  -16.64950   -8.75850  # hc H12 BMI 12
298 12 8  0.079000    4.26200  -15.78950  -10.05550  # hc H13 BMI 12
299 12 8  0.079000    2.85600  -16.43250  -10.90450  # hc H14 BMI 12
300 12 8  0.079000    3.75900  -17.46450   -9.79550  # hc H15 BMI 12
301 13 1 -0.124000   -8.17600   20.32650  -25.33050  # cc C1 BMI 13
302 13 2  0.177000   -8.06600   20.84550  -26.60650  # na N1 BMI 13
303 13 3 -0.233000   -9.14100   19.36750  -25.37150  # cd C2 BMI 13
304 13 1 -0.135000   -8.94100   20.21350  -27.39550  # cc C3 BMI 13
305 13 4 -0.301000   -7.13500   21.90450  -27.02350  # c3 C4 BMI 13
306 13 5  0.145000   -7.33300   22.80950  -26.45050  # h1 H1 BMI 13
307 13 5  0.145000   -7.28300   22.10750  -28.08250  # h1 H2 BMI 13
308 13 5  0.145000   -6.11000   21.57350  -26.85850  # h1 H3 BMI 13
309 13 2  0.251000   -9.60600   19.30950  -26.67150  # na N2 BMI 13
310 13 6  0.187000   -7.56500   20.67350  -24.51450  # h4 H4 BMI 13
311 13 6  0.223000   -9.52600   18.72650  -24.59650  # h4 H5 BMI 13
312 13 7  0.192000   -9.08400   20.40150  -28.44650  # h5 H6 BMI 13
313 13 4 -0.278000  -10.69400   18.43050  -27.16750  # c3 C5 BMI 13
314 13 4  0.048000  -12.08100   18.90650  -26.73150  # c3 C6 BMI 13
315 13 5  0.117000  -10.48100   17.42550  -26.79850  # h1 H7 BMI 13
316 13 5  0.117000  -10.60600   18.40650  -28.25450  # h1 H8 BMI 13
317 13 4  0.113000  -13.18600   17.98250  -27.25950  # c3 C7 BMI 13
318 13 8  0.016000  -12.24300   19.92750  -27.09450  # hc H9 BMI 13
319 13 8  0.016000  -12.12700   18.94850  -25.63850  # hc H10 BMI 13
320 13 4 -0.278000  -14.58500   18.43850  -26.83350  # c3 C8 BMI 13
321 13 8  0.010000  -13.00900   16.96150  -26.89950  # hc H11 BMI 13
322 13 8  0.010000  -13.13200   17.93750  -28.35250  # hc H12 BMI 13
323 13 8  0.079000  -14.68300   18.45550  -25.74450  # hc H13 BMI 13
324 13 8  0.079000  -15.34800   17.76250  -27.22350  # hc H14 BMI 13
325 13 8  0.079000  -14.80700   19.44150  -27.20750  # hc H15 BMI 13
326 14 1 -0.124000   20.39500  -25.06850  -11.17650  # cc C1 BMI 14
327 14 2  0.177000   20.83200  -26.34250  -10.86550  # na N1 BMI 14
328 14 3 -0.233000   19.17100  -24.91450  -10.60250  # cd C2 BMI 14
329 14 1 -0.135000   19.89500  -26.93850  -10.12050  # cc C3 BMI 14
330 14 4 -0.301000   22.11500  -26.93250  -11.27450  # c3 C4 BMI 14
331 14 5  0.145000   22.17400  -26.95650  -12.36250  # h1 H1 BMI 14
332 14 5  0.145000   22.17600  -27.94850  -10.88650  # h1 H2 BMI 14
333 14 5  0.145000   22.93400  -26.34050  -10.86850  # h1 H3 BMI 14
334 14 2  0.251000   18.87600  -26.09250   -9.94450  # na N2 BMI 14
335 14 6  0.187000   20.98500  -24.38850  -11.76650  # h4 H4 BMI 14
336 14 6  0.223000   18.49800  -24.07450  -10.60250  # h4 H5 BMI 14
337 14 7  0.192000   19.95400  -27.93750   -9.72450  # h5 H6 BMI 14
338 14 4 -0.278000   17.62000  -26.38850   -9.21050  # c3 C5 BMI 14
339 14 4  0.048000   16.44100  -26.65950  -10.14750  # c3 C6 BMI 14
340 14 5  0.117000   17.42600  -25.53450   -8.55850  # h1 H7 BMI 14
341 14 5  0.117000   17.82500  -27.24950   -8.57250  # h1 H8 BMI 14
342 14 4  0.113000   15.15700  -26.96450   -9.36450  # c3 C7 BMI 14
343 14 8  0.016000   16.68700  -27.50150  -10.80350  # hc H9 BMI 14
344 14 8  0.016000   16.28000  -25.79050  -10.79450  # hc H10 BMI 14
345 14 4 -0.278000   13.96200  -27.23650  -10.28150  # c3 C8 BMI 14
346 14 8  0.010000   14.92600  -26.12050   -8.70250  # hc H11 BMI 14
347 14 8  0.010000   15.32500  -27.82950   -8.71350  # hc H12 BMI 14
348 14 8  0.079000   13.74400  -26.37450  -10.91750  # hc H13 BMI 14
349 14 8  0.079000   13.06500  -27.45050   -9.69650  # hc H14 BMI 14
350 14 8  0.079000   14.14700  -28.09650  -10.93050  # hc H15 BMI 14
351 15 1 -0.124000   24.45100   16.00750   10.62950  # cc C1 BMI 15
352 15 2  0.177000   24.58600   16.99150    9.66850  # na N1 BMI 15
353 15 3 -0.233000   25.68200   15.81350   11.17850  # cd C2 BMI 15
354 15 1 -0.135000   25.86500   17.38050    9.64150  # cc C3 BMI 15
355 15 4 -0.301000   23.50300   17.52450    8.82950  # c3 C4 BMI 15
356 15 5  0.145000   23.07100   16.71850    8.23750  # h1 H1 BMI 15
357 15 5  0.145000   23.91200   18.28250    8.16450  # h1 H2 BMI 15
358 15 5  0.145000   22.73900   17.97450    9.46350  # h1 H3 BMI 15
359 15 2  0.251000   26.55200   16.68250   10.55050  # na N2 BMI 15
360 15 6  0.187000   23.50500   15.53850   10.84150  # h4 H4 BMI 15
361 15 6  0.223000   26.00400   15.14250   11.95650  # h4 H5 BMI 15
362 15 7  0.192000   26.27400   18.13850    8.99450  # h5 H6 BMI 15
363 15 4 -0.278000   28.01000   16.78750   10.80350  # c3 C5 BMI 15
364 15 4  0.048000   28.79800   15.62250   10.20050  # c3 C6 BMI 15
365 15 5  0.117000   28.14000   16.84150   11.88550  # h1 H7 BMI 15
366 15 5  0.117000   28.33300   17.74150   10.38550  # h1 H8 BMI 15
367 15 4  0.113000   30.30200   15.75550   10.47550  # c3 C7 BMI 15
368 15 8  0.016000   28.61700   15.58450    9.12150  # hc H9 BMI 15
369 15 8  0.016000   28.43000   14.67850   10.61650  # hc H10 BMI 15
370 15 4 -0.278000   31.11100   14.59850    9.88350  # c3 C8 BMI 15
371 15 8  0.010000   30.47100   15.80550   11.55750  # hc H11 BMI 15
372 15 8  0.010000   30.66300   16.70450   10.06350  # hc H12 BMI 15
373 15 8  0.079000   30.79900   13.63950   10.30450  # hc H13 BMI 15
374 15 8  0.079000   32.17400   14.72250   10.09350  # hc H14 BMI 15
375 15 8  0.079000   30.99200   14.54450    8.79750  # hc H15 BMI 15
376 16 1 -0.124000    6.49100  -19.74650   27.02150  # cc C1 BMI 16
377 16 2  0.177000    7.75400  -19.83950   26.46950  # na N1 BMI 16
378 16 3 -0.233000    5.60800  -20.15550   26.07050  # cd C2 BMI 16